(written by ASE)

288 atoms
1 atom types

0.0      9.7967855717378267  xlo xhi
0.0      8.4842651805538143  ylo yhi
0.0      25.048322619003812  zlo zhi
    -4.8983927858689134                       0                       0  xy xz yz

Atoms # atomic

     1   1     -1.5780541698492758      3.7391783932762301      11.164142594244998
     2   1  4.5781030483499678e-17      1.0059083940013565      11.164142594244998
     3   1      1.5780541698492767      3.7391783932762297      11.164142594244998
     4   1     0.87114222308518185       3.331042590518615        9.70945958825817
     5   1    -0.87114222308518097      3.3310425905186145        9.70945958825817
     6   1  2.8302821244573225e-16      1.8221799995165795        9.70945958825817
     7   1      1.4424070440962229      1.9953142983279697       8.653218455042051
     8   1      2.4491963929344567     0.25150399362096199       8.653218455042051
     9   1      3.4559857417726918      1.9953142983279697       8.653218455042051
    10   1      1.4424070440962204      0.8327740951899627      12.220383727461106
    11   1       3.455985741772694     0.83277409518996315      12.220383727461106
    12   1      2.4491963929344571      2.5765843998969751      12.220383727461106
    13   1      3.3203386160196362     0.91108999975828997      2.8147017212437242
    14   1      2.4491963929344558      2.4199525907603254      2.8147017212437242
    15   1       1.578054169849274     0.91108999975828997      2.8147017212437242
    16   1     0.87114222308518097     0.50295419700067834      1.3600187152569072
    17   1      4.0272505627837329     0.50295419700067923      1.3600187152569072
    18   1      2.4491963929344553      3.2362241962755474      1.3600187152569072
    19   1     -1.0067893488382385      3.4093584950869413     0.30377758204078797
    20   1 -2.3952020525764185e-15      1.6655481903799294     0.30377758204078797
    21   1      1.0067893488382349      3.4093584950869418     0.30377758204078797
    22   1     -1.0067893488382338      2.2468182919489306      3.8709428544598437
    23   1      1.0067893488382322       2.246818291948935      3.8709428544598437
    24   1 -1.6297576241432049e-15      3.9906285966559425      3.8709428544598437
    25   1     0.87114222308518163      2.3251341965172583      6.9894221577443565
    26   1  7.0765718080027854e-16      3.8339967875192933      6.9894221577443565
    27   1    -0.87114222308518074      2.3251341965172578      6.9894221577443565
    28   1      3.3203386160196362      1.9169983937596475      5.5347391517575382
    29   1      1.5780541698492738      1.9169983937596466      5.5347391517575382
    30   1      2.4491963929344576     0.40813580275760764      5.5347391517575382
    31   1      3.8916034370306778     0.58127010156900116      4.4784980185414192
    32   1      2.4491963929344576      3.0795923871388986      4.4784980185414192
    33   1      1.0067893488382365     0.58127010156900127      4.4784980185414192
    34   1      1.4424070440962187      3.6608624887079038      8.0456632909604746
    35   1     -1.4424070440962229      3.6608624887079029      8.0456632909604746
    36   1 -2.2767596063166463e-15      1.1625402031380063      8.0456632909604746
    37   1     -1.5780541698492758      3.7391783932762301      23.688303903746906
    38   1  4.5781030483499678e-17      1.0059083940013565      23.688303903746906
    39   1      1.5780541698492767      3.7391783932762297      23.688303903746906
    40   1     0.87114222308518185       3.331042590518615      22.233620897760076
    41   1    -0.87114222308518097      3.3310425905186145      22.233620897760076
    42   1  2.8302821244573225e-16      1.8221799995165795      22.233620897760076
    43   1      1.4424070440962229      1.9953142983279697      21.177379764543957
    44   1      2.4491963929344567     0.25150399362096199      21.177379764543957
    45   1      3.4559857417726918      1.9953142983279697      21.177379764543957
    46   1      1.4424070440962204      0.8327740951899627      24.744545036963011
    47   1       3.455985741772694     0.83277409518996315      24.744545036963011
    48   1      2.4491963929344571      2.5765843998969751      24.744545036963011
    49   1      3.3203386160196362     0.91108999975828997       15.33886303074563
    50   1      2.4491963929344558      2.4199525907603254       15.33886303074563
    51   1       1.578054169849274     0.91108999975828997       15.33886303074563
    52   1     0.87114222308518097     0.50295419700067834      13.884180024758813
    53   1      4.0272505627837329     0.50295419700067923      13.884180024758813
    54   1      2.4491963929344553      3.2362241962755474      13.884180024758813
    55   1     -1.0067893488382385      3.4093584950869413      12.827938891542694
    56   1 -2.3952020525764185e-15      1.6655481903799294      12.827938891542694
    57   1      1.0067893488382349      3.4093584950869418      12.827938891542694
    58   1     -1.0067893488382338      2.2468182919489306      16.395104163961751
    59   1      1.0067893488382322       2.246818291948935      16.395104163961751
    60   1 -1.6297576241432049e-15      3.9906285966559425      16.395104163961751
    61   1     0.87114222308518163      2.3251341965172583      19.513583467246264
    62   1  7.0765718080027854e-16      3.8339967875192933      19.513583467246264
    63   1    -0.87114222308518074      2.3251341965172578      19.513583467246264
    64   1      3.3203386160196362      1.9169983937596475      18.058900461259444
    65   1      1.5780541698492738      1.9169983937596466      18.058900461259444
    66   1      2.4491963929344576     0.40813580275760764      18.058900461259444
    67   1      3.8916034370306778     0.58127010156900116      17.002659328043325
    68   1      2.4491963929344576      3.0795923871388986      17.002659328043325
    69   1      1.0067893488382365     0.58127010156900127      17.002659328043325
    70   1      1.4424070440962187      3.6608624887079038      20.569824600462383
    71   1     -1.4424070440962229      3.6608624887079029      20.569824600462383
    72   1 -2.2767596063166463e-15      1.1625402031380063      20.569824600462383
    73   1     -4.0272505627837329      7.9813109835531382      11.164142594244998
    74   1     -2.4491963929344562      5.2480409842782638      11.164142594244998
    75   1    -0.87114222308517963      7.9813109835531382      11.164142594244998
    76   1     -1.5780541698492745      7.5731751807955234        9.70945958825817
    77   1     -3.3203386160196375      7.5731751807955234        9.70945958825817
    78   1     -2.4491963929344567       6.064312589793488        9.70945958825817
    79   1     -1.0067893488382336      6.2374468886048779       8.653218455042051
    80   1  3.9097201267149506e-16        4.49363658389787       8.653218455042051
    81   1      1.0067893488382351      6.2374468886048779       8.653218455042051
    82   1     -1.0067893488382358      5.0749066854668712      12.220383727461106
    83   1      1.0067893488382376      5.0749066854668712      12.220383727461106
    84   1  4.0900866015377414e-16      6.8187169901738836      12.220383727461106
    85   1     0.87114222308517986      5.1532225900351989      2.8147017212437242
    86   1 -8.3390271553985726e-16      6.6620851810372335      2.8147017212437242
    87   1    -0.87114222308518252       5.153222590035198      2.8147017212437242
    88   1     -1.5780541698492758      4.7450867872775859      1.3600187152569072
    89   1      1.5780541698492765      4.7450867872775877      1.3600187152569072
    90   1 -1.1071445414601907e-15      7.4783567865524558      1.3600187152569072
    91   1     -3.4559857417726949      7.6514910853638494     0.30377758204078797
    92   1     -2.4491963929344589      5.9076807806568379     0.30377758204078797
    93   1     -1.4424070440962222      7.6514910853638494     0.30377758204078797
    94   1     -3.4559857417726896      6.4889508822258382      3.8709428544598437
    95   1     -1.4424070440962242      6.4889508822258435      3.8709428544598437
    96   1      -2.449196392934458      8.2327611869328514      3.8709428544598437
    97   1     -1.5780541698492749      6.5672667867941659      6.9894221577443565
    98   1     -2.4491963929344558      8.0761293777962013      6.9894221577443565
    99   1     -3.3203386160196371      6.5672667867941659      6.9894221577443565
   100   1     0.87114222308517952      6.1591309840365556      5.5347391517575382
   101   1    -0.87114222308518241      6.1591309840365547      5.5347391517575382
   102   1  7.8925955586998313e-16      4.6502683930345157      5.5347391517575382
   103   1      1.4424070440962213      4.8234026918459092      4.4784980185414192
   104   1  8.4567772620658009e-16      7.3217249774158066      4.4784980185414192
   105   1     -1.4424070440962198      4.8234026918459092      4.4784980185414192
   106   1      -1.006789348838238      7.9029950789848122      8.0456632909604746
   107   1     -3.8916034370306791      7.9029950789848114      8.0456632909604746
   108   1     -2.4491963929344585      5.4046727934149139      8.0456632909604746
   109   1     -4.0272505627837329      7.9813109835531382      23.688303903746906
   110   1     -2.4491963929344562      5.2480409842782638      23.688303903746906
   111   1    -0.87114222308517963      7.9813109835531382      23.688303903746906
   112   1     -1.5780541698492745      7.5731751807955234      22.233620897760076
   113   1     -3.3203386160196375      7.5731751807955234      22.233620897760076
   114   1     -2.4491963929344567       6.064312589793488      22.233620897760076
   115   1     -1.0067893488382336      6.2374468886048779      21.177379764543957
   116   1  3.9097201267149506e-16        4.49363658389787      21.177379764543957
   117   1      1.0067893488382351      6.2374468886048779      21.177379764543957
   118   1     -1.0067893488382358      5.0749066854668712      24.744545036963011
   119   1      1.0067893488382376      5.0749066854668712      24.744545036963011
   120   1  4.0900866015377414e-16      6.8187169901738836      24.744545036963011
   121   1     0.87114222308517986      5.1532225900351989       15.33886303074563
   122   1 -8.3390271553985726e-16      6.6620851810372335       15.33886303074563
   123   1    -0.87114222308518252       5.153222590035198       15.33886303074563
   124   1     -1.5780541698492758      4.7450867872775859      13.884180024758813
   125   1      1.5780541698492765      4.7450867872775877      13.884180024758813
   126   1 -1.1071445414601907e-15      7.4783567865524558      13.884180024758813
   127   1     -3.4559857417726949      7.6514910853638494      12.827938891542694
   128   1     -2.4491963929344589      5.9076807806568379      12.827938891542694
   129   1     -1.4424070440962222      7.6514910853638494      12.827938891542694
   130   1     -3.4559857417726896      6.4889508822258382      16.395104163961751
   131   1     -1.4424070440962242      6.4889508822258435      16.395104163961751
   132   1      -2.449196392934458      8.2327611869328514      16.395104163961751
   133   1     -1.5780541698492749      6.5672667867941659      19.513583467246264
   134   1     -2.4491963929344558      8.0761293777962013      19.513583467246264
   135   1     -3.3203386160196371      6.5672667867941659      19.513583467246264
   136   1     0.87114222308517952      6.1591309840365556      18.058900461259444
   137   1    -0.87114222308518241      6.1591309840365547      18.058900461259444
   138   1  7.8925955586998313e-16      4.6502683930345157      18.058900461259444
   139   1      1.4424070440962213      4.8234026918459092      17.002659328043325
   140   1  8.4567772620658009e-16      7.3217249774158066      17.002659328043325
   141   1     -1.4424070440962198      4.8234026918459092      17.002659328043325
   142   1      -1.006789348838238      7.9029950789848122      20.569824600462383
   143   1     -3.8916034370306791      7.9029950789848114      20.569824600462383
   144   1     -2.4491963929344585      5.4046727934149139      20.569824600462383
   145   1      3.3203386160196384       3.739178393276231      11.164142594244998
   146   1      4.8983927858689142      1.0059083940013573      11.164142594244998
   147   1       6.476446955718191      3.7391783932762306      11.164142594244998
   148   1      5.7695350089540964      3.3310425905186158        9.70945958825817
   149   1      4.0272505627837338      3.3310425905186158        9.70945958825817
   150   1      4.8983927858689142      1.8221799995165806        9.70945958825817
   151   1      6.3407998299651371      1.9953142983279712       8.653218455042051
   152   1      7.3475891788033714     0.25150399362096287       8.653218455042051
   153   1      8.3543785276416056      1.9953142983279708       8.653218455042051
   154   1      6.3407998299651354     0.83277409518996359      12.220383727461106
   155   1      8.3543785276416092     0.83277409518996448      12.220383727461106
   156   1      7.3475891788033714       2.576584399896976      12.220383727461106
   157   1      8.2187314018885509      0.9110899997582913      2.8147017212437242
   158   1      7.3475891788033696      2.4199525907603263      2.8147017212437242
   159   1      6.4764469557181883     0.91108999975829086      2.8147017212437242
   160   1      5.7695350089540947     0.50295419700067923      1.3600187152569072
   161   1      8.9256433486526472     0.50295419700068011      1.3600187152569072
   162   1      7.3475891788033705      3.2362241962755487      1.3600187152569072
   163   1       3.891603437030676      3.4093584950869427     0.30377758204078797
   164   1      4.8983927858689116      1.6655481903799303     0.30377758204078797
   165   1      5.9051821347071485      3.4093584950869427     0.30377758204078797
   166   1      3.8916034370306805      2.2468182919489319      3.8709428544598437
   167   1      5.9051821347071467      2.2468182919489363      3.8709428544598437
   168   1      4.8983927858689125      3.9906285966559438      3.8709428544598437
   169   1      5.7695350089540955      2.3251341965172592      6.9894221577443565
   170   1      4.8983927858689151      3.8339967875192942      6.9894221577443565
   171   1      4.0272505627837338      2.3251341965172587      6.9894221577443565
   172   1      8.2187314018885509      1.9169983937596484      5.5347391517575382
   173   1      6.4764469557181883       1.916998393759648      5.5347391517575382
   174   1      7.3475891788033714     0.40813580275760808      5.5347391517575382
   175   1      8.7899962228995925     0.58127010156900205      4.4784980185414192
   176   1      7.3475891788033714      3.0795923871388995      4.4784980185414192
   177   1      5.9051821347071503      0.5812701015690025      4.4784980185414192
   178   1      6.3407998299651336      3.6608624887079042      8.0456632909604746
   179   1      3.4559857417726918      3.6608624887079042      8.0456632909604746
   180   1      4.8983927858689125      1.1625402031380074      8.0456632909604746
   181   1      3.3203386160196384       3.739178393276231      23.688303903746906
   182   1      4.8983927858689142      1.0059083940013573      23.688303903746906
   183   1       6.476446955718191      3.7391783932762306      23.688303903746906
   184   1      5.7695350089540964      3.3310425905186158      22.233620897760076
   185   1      4.0272505627837338      3.3310425905186158      22.233620897760076
   186   1      4.8983927858689142      1.8221799995165806      22.233620897760076
   187   1      6.3407998299651371      1.9953142983279712      21.177379764543957
   188   1      7.3475891788033714     0.25150399362096287      21.177379764543957
   189   1      8.3543785276416056      1.9953142983279708      21.177379764543957
   190   1      6.3407998299651354     0.83277409518996359      24.744545036963011
   191   1      8.3543785276416092     0.83277409518996448      24.744545036963011
   192   1      7.3475891788033714       2.576584399896976      24.744545036963011
   193   1      8.2187314018885509      0.9110899997582913       15.33886303074563
   194   1      7.3475891788033696      2.4199525907603263       15.33886303074563
   195   1      6.4764469557181883     0.91108999975829086       15.33886303074563
   196   1      5.7695350089540947     0.50295419700067923      13.884180024758813
   197   1      8.9256433486526472     0.50295419700068011      13.884180024758813
   198   1      7.3475891788033705      3.2362241962755487      13.884180024758813
   199   1       3.891603437030676      3.4093584950869427      12.827938891542694
   200   1      4.8983927858689116      1.6655481903799303      12.827938891542694
   201   1      5.9051821347071485      3.4093584950869427      12.827938891542694
   202   1      3.8916034370306805      2.2468182919489319      16.395104163961751
   203   1      5.9051821347071467      2.2468182919489363      16.395104163961751
   204   1      4.8983927858689125      3.9906285966559438      16.395104163961751
   205   1      5.7695350089540955      2.3251341965172592      19.513583467246264
   206   1      4.8983927858689151      3.8339967875192942      19.513583467246264
   207   1      4.0272505627837338      2.3251341965172587      19.513583467246264
   208   1      8.2187314018885509      1.9169983937596484      18.058900461259444
   209   1      6.4764469557181883       1.916998393759648      18.058900461259444
   210   1      7.3475891788033714     0.40813580275760808      18.058900461259444
   211   1      8.7899962228995925     0.58127010156900205      17.002659328043325
   212   1      7.3475891788033714      3.0795923871388995      17.002659328043325
   213   1      5.9051821347071503      0.5812701015690025      17.002659328043325
   214   1      6.3407998299651336      3.6608624887079042      20.569824600462383
   215   1      3.4559857417726918      3.6608624887079042      20.569824600462383
   216   1      4.8983927858689125      1.1625402031380074      20.569824600462383
   217   1     0.87114222308518197      7.9813109835531382      11.164142594244998
   218   1      2.4491963929344576      5.2480409842782656      11.164142594244998
   219   1      4.0272505627837338      7.9813109835531382      11.164142594244998
   220   1      3.3203386160196398      7.5731751807955234        9.70945958825817
   221   1      1.5780541698492772      7.5731751807955234        9.70945958825817
   222   1       2.449196392934458       6.064312589793488        9.70945958825817
   223   1      3.8916034370306809      6.2374468886048788       8.653218455042051
   224   1      4.8983927858689151      4.4936365838978709       8.653218455042051
   225   1      5.9051821347071494      6.2374468886048788       8.653218455042051
   226   1      3.8916034370306782      5.0749066854668712      12.220383727461106
   227   1       5.905182134707152      5.0749066854668721      12.220383727461106
   228   1      4.8983927858689151      6.8187169901738836      12.220383727461106
   229   1      5.7695350089540947      5.1532225900351989      2.8147017212437242
   230   1      4.8983927858689134      6.6620851810372343      2.8147017212437242
   231   1      4.0272505627837321      5.1532225900351989      2.8147017212437242
   232   1      3.3203386160196384      4.7450867872775877      1.3600187152569072
   233   1       6.476446955718191      4.7450867872775877      1.3600187152569072
   234   1      4.8983927858689125      7.4783567865524558      1.3600187152569072
   235   1      1.4424070440962196      7.6514910853638503     0.30377758204078797
   236   1      2.4491963929344553      5.9076807806568379     0.30377758204078797
   237   1      3.4559857417726922      7.6514910853638503     0.30377758204078797
   238   1      1.4424070440962242      6.4889508822258399      3.8709428544598437
   239   1      3.4559857417726905      6.4889508822258435      3.8709428544598437
   240   1      2.4491963929344562      8.2327611869328514      3.8709428544598437
   241   1      3.3203386160196393      6.5672667867941668      6.9894221577443565
   242   1      2.4491963929344585      8.0761293777962013      6.9894221577443565
   243   1      1.5780541698492772      6.5672667867941668      6.9894221577443565
   244   1      5.7695350089540938      6.1591309840365565      5.5347391517575382
   245   1      4.0272505627837321      6.1591309840365556      5.5347391517575382
   246   1      4.8983927858689151      4.6502683930345166      5.5347391517575382
   247   1      6.3407998299651354      4.8234026918459101      4.4784980185414192
   248   1      4.8983927858689142      7.3217249774158057      4.4784980185414192
   249   1       3.455985741772694      4.8234026918459101      4.4784980185414192
   250   1       3.891603437030676      7.9029950789848114      8.0456632909604746
   251   1      1.0067893488382351      7.9029950789848122      8.0456632909604746
   252   1      2.4491963929344553      5.4046727934149157      8.0456632909604746
   253   1     0.87114222308518197      7.9813109835531382      23.688303903746906
   254   1      2.4491963929344576      5.2480409842782656      23.688303903746906
   255   1      4.0272505627837338      7.9813109835531382      23.688303903746906
   256   1      3.3203386160196398      7.5731751807955234      22.233620897760076
   257   1      1.5780541698492772      7.5731751807955234      22.233620897760076
   258   1       2.449196392934458       6.064312589793488      22.233620897760076
   259   1      3.8916034370306809      6.2374468886048788      21.177379764543957
   260   1      4.8983927858689151      4.4936365838978709      21.177379764543957
   261   1      5.9051821347071494      6.2374468886048788      21.177379764543957
   262   1      3.8916034370306782      5.0749066854668712      24.744545036963011
   263   1       5.905182134707152      5.0749066854668721      24.744545036963011
   264   1      4.8983927858689151      6.8187169901738836      24.744545036963011
   265   1      5.7695350089540947      5.1532225900351989       15.33886303074563
   266   1      4.8983927858689134      6.6620851810372343       15.33886303074563
   267   1      4.0272505627837321      5.1532225900351989       15.33886303074563
   268   1      3.3203386160196384      4.7450867872775877      13.884180024758813
   269   1       6.476446955718191      4.7450867872775877      13.884180024758813
   270   1      4.8983927858689125      7.4783567865524558      13.884180024758813
   271   1      1.4424070440962196      7.6514910853638503      12.827938891542694
   272   1      2.4491963929344553      5.9076807806568379      12.827938891542694
   273   1      3.4559857417726922      7.6514910853638503      12.827938891542694
   274   1      1.4424070440962242      6.4889508822258399      16.395104163961751
   275   1      3.4559857417726905      6.4889508822258435      16.395104163961751
   276   1      2.4491963929344562      8.2327611869328514      16.395104163961751
   277   1      3.3203386160196393      6.5672667867941668      19.513583467246264
   278   1      2.4491963929344585      8.0761293777962013      19.513583467246264
   279   1      1.5780541698492772      6.5672667867941668      19.513583467246264
   280   1      5.7695350089540938      6.1591309840365565      18.058900461259444
   281   1      4.0272505627837321      6.1591309840365556      18.058900461259444
   282   1      4.8983927858689151      4.6502683930345166      18.058900461259444
   283   1      6.3407998299651354      4.8234026918459101      17.002659328043325
   284   1      4.8983927858689142      7.3217249774158057      17.002659328043325
   285   1       3.455985741772694      4.8234026918459101      17.002659328043325
   286   1       3.891603437030676      7.9029950789848114      20.569824600462383
   287   1      1.0067893488382351      7.9029950789848122      20.569824600462383
   288   1      2.4491963929344553      5.4046727934149157      20.569824600462383
