(written by ASE)

32 atoms
1 atom types

0.0      4.9345825232061635  xlo xhi
0.0      4.2734738221672526  ylo yhi
0.0      15.606145999999999  zlo zhi
    -2.4672912616030809                       0                       0  xy xz yz

Atoms # atomic

     1   1                       0                       0      1.9507682499999999
     2   1                       0                       0      5.8523047500000001
     3   1  2.3987498188588764e-16      1.4244912740557494      1.9507682499999999
     4   1        1.23364563080154     0.71224563702787458      5.8523047500000001
     5   1                       0                       0      9.7538412499999989
     6   1                       0                       0             13.65537775
     7   1  2.3987498188588764e-16      1.4244912740557494      9.7538412499999989
     8   1        1.23364563080154     0.71224563702787458             13.65537775
     9   1     -1.2336456308015404      2.1367369110836263      1.9507682499999999
    10   1     -1.2336456308015404      2.1367369110836263      5.8523047500000001
    11   1     -1.2336456308015404      3.5612281851393757      1.9507682499999999
    12   1 -6.1453097548501315e-16      2.8489825481115005      5.8523047500000001
    13   1     -1.2336456308015404      2.1367369110836263      9.7538412499999989
    14   1     -1.2336456308015404      2.1367369110836263             13.65537775
    15   1     -1.2336456308015404      3.5612281851393757      9.7538412499999989
    16   1 -6.1453097548501315e-16      2.8489825481115005             13.65537775
    17   1      2.4672912616030818 -1.5180846700116418e-17      1.9507682499999999
    18   1      2.4672912616030818 -1.5180846700116418e-17      5.8523047500000001
    19   1      2.4672912616030818      1.4244912740557492      1.9507682499999999
    20   1      3.7009368924046218     0.71224563702787436      5.8523047500000001
    21   1      2.4672912616030818 -1.5180846700116418e-17      9.7538412499999989
    22   1      2.4672912616030818 -1.5180846700116418e-17             13.65537775
    23   1      2.4672912616030818      1.4244912740557492      9.7538412499999989
    24   1      3.7009368924046218     0.71224563702787436             13.65537775
    25   1      1.2336456308015413      2.1367369110836263      1.9507682499999999
    26   1      1.2336456308015413      2.1367369110836263      5.8523047500000001
    27   1      1.2336456308015418      3.5612281851393761      1.9507682499999999
    28   1      2.4672912616030813       2.848982548111501      5.8523047500000001
    29   1      1.2336456308015413      2.1367369110836263      9.7538412499999989
    30   1      1.2336456308015413      2.1367369110836263             13.65537775
    31   1      1.2336456308015418      3.5612281851393761      9.7538412499999989
    32   1      2.4672912616030813       2.848982548111501             13.65537775
