#LAMMPS data file for H

2 atoms
1 atom types

0.0 20.0 xlo xhi
0.0 20.0 ylo yhi
0.0 20.0 zlo zhi

Masses

1 1.0

Atoms

1 1 9.630000 10.000000 10.000000
2 1 10.370000 10.000000 10.000000
