(written by ASE)

64 atoms
2 atom types

0.0      5.6989257799999997  xlo xhi
0.0      4.9354144997620475  ylo yhi
0.0      22.796400139999999  zlo zhi
    -2.8494628899999994  1.6000489229042039e-15  2.7713660290659376e-15  xy xz yz

Masses

1 1.0
2 1.0

Atoms # atomic

     1   1  2.0000611536302549e-16   3.464207536332423e-16      2.8495500174999999
     2   1      2.8494628900000003  1.8058517658938642e-15           14.2477500875
     3   1      1.4247314449999999      2.4677072498810233  4.9303806576313238e-32
     4   1      1.4247314450000004      2.4677072498810242      5.6991000349999998
     5   1     -1.4247314449999984      2.4677072498810251           14.2477500875
     6   1     -1.4247314449999982      2.4677072498810255      19.946850122499999
     7   1     -1.4247314449999984      2.4677072498810255      17.097300104999999
     8   1     -1.4247314449999986      2.4677072498810246      11.398200069999998
     9   1      1.4247314450000006      2.4677072498810242      8.5486500524999993
    10   1      1.4247314450000002      2.4677072498810237      2.8495500174999999
    11   1      2.8494628899999994  4.2016875136089502e-16      2.8495500174999999
    12   1      2.8494628899999999  1.1130102586273795e-15      8.5486500524999993
    13   1      2.8494628899999999  7.6658950499413737e-16      5.6991000349999998
    14   1      2.8494628899999994  7.3747997727652752e-17                       0
    15   1      2.8494628900000003  1.4594310122606217e-15      11.398200069999998
    16   1      2.8494628900000007  2.1522725195271064e-15      17.097300104999999
    17   1     -1.4247314449999995      2.4677072498810233  4.9303806576313238e-32
    18   1      -1.424731444999999      2.4677072498810242      5.6991000349999998
    19   1      2.8494628900000007  2.4986932731603489e-15      19.946850122499999
    20   1     -1.4247314449999993      2.4677072498810237      2.8495500174999999
    21   1  6.0001834608907646e-16  1.0392622608997269e-15      8.5486500524999993
    22   1  4.0001223072605097e-16  6.9284150726648461e-16      5.6991000349999998
    23   1       1.424731445000001      2.4677072498810251           14.2477500875
    24   1      1.4247314450000013      2.4677072498810255      19.946850122499999
    25   1  8.0002446145210184e-16   1.385683014532969e-15      11.398200069999998
    26   1  1.2000366921781529e-15  2.0785245217994537e-15      17.097300104999999
    27   1  1.4000428075411784e-15  2.4249452754326959e-15      19.946850122499999
    28   1  1.0000305768151274e-15  1.7321037681662116e-15           14.2477500875
    29   1       1.424731445000001      2.4677072498810255      17.097300104999999
    30   1     -1.4247314449999988      2.4677072498810242      8.5486500524999993
    31   1      1.4247314450000008      2.4677072498810246             11.39820007
    32   1                       0                       0                       0
    33   2      2.8494628900000007       1.645138166587351      15.613859244381715
    34   2      4.2741943350000007     0.82256908329367728      18.580740965618286
    35   2      2.8494628900000007      1.6451381665873506      12.881640930618287
    36   2      1.4247314450000019      4.1128454164683745      15.613859244381715
    37   2      4.2741943350000016     0.82256908329367762      21.312959279381719
    38   2      1.4247314450000008      4.1128454164683728      1.4834408606182856
    39   2       1.424731445000001      4.1128454164683736       4.215659174381714
    40   2      2.8494628900000007      3.2902763331746994      9.9147592093817156
    41   2      2.8494628900000012      3.2902763331747003      18.580740965618286
    42   2      2.8494628900000003      3.2902763331746989      7.1825408956182857
    43   2     -1.4247314449999986      4.1128454164683745      12.881640930618287
    44   2      4.2741943350000007     0.82256908329367628      9.9147592093817156
    45   2  7.5569892597701836e-16      1.6451381665873495       4.215659174381714
    46   2      1.4247314450000002     0.82256908329367584      7.1825408956182875
    47   2      1.4247314450000004     0.82256908329367617      9.9147592093817156
    48   2  5.6392816641724542e-16      1.6451381665873492      1.4834408606182856
    49   2  1.5557233874291204e-15       1.645138166587351      15.613859244381715
    50   2       1.424731445000001     0.82256908329367717      18.580740965618286
    51   2      1.4247314450000013     0.82256908329367751      21.312959279381719
    52   2  1.3639526278693476e-15      1.6451381665873506      12.881640930618287
    53   2      2.8494628899999999      1.6451381665873492      1.4834408606182856
    54   2     -1.4247314449999993      4.1128454164683736      4.2156591743817149
    55   2  9.4938477276208186e-16      3.2902763331746994      9.9147592093817156
    56   2     -1.4247314449999995      4.1128454164683728      1.4834408606182856
    57   2     -1.4247314449999984      4.1128454164683745      15.613859244381715
    58   2   1.557638474654411e-15      3.2902763331747003      18.580740965618286
    59   2  1.7494092342141842e-15      3.2902763331747007      21.312959279381719
    60   2      2.8494628900000012      3.2902763331747007      21.312959279381719
    61   2      2.8494628900000003      1.6451381665873495      4.2156591743817149
    62   2      4.2741943350000007     0.82256908329367595      7.1825408956182875
    63   2  7.5761401320230903e-16      3.2902763331746989      7.1825408956182875
    64   2      1.4247314450000017      4.1128454164683745      12.881640930618287
